LAMMPS data file via write_data, version 3 Mar 2020, timestep = 505

1122 atoms
3 atom types

1.3234626023746021e+00 5.3416537397625476e+01 xlo xhi
2.0486367684513276e+00 6.0431363231548829e+01 ylo yhi
4.6990118639437908e+00 7.9379586491006400e+00 zlo zhi

Masses

1 95.95
2 32.065
3 32.065

Atoms # atomic

144 3 3.4207320185863539e+00 3.7939754616998531e+00 7.9375548729637266e+00 0 0 0
518 2 3.4207310589165467e+00 3.7939779042528938e+00 4.6994129221995911e+00 0 0 0
166 3 6.4850304944661321e+00 3.7939754002726285e+00 7.9375541793831275e+00 0 0 0
540 2 6.4850299074095110e+00 3.7939779762542574e+00 4.6994120477483907e+00 0 0 0
188 3 9.5493283906748765e+00 3.7939754167933852e+00 7.9375541699093892e+00 0 0 0
562 2 9.5493287030773057e+00 3.7939779999432455e+00 4.6994118639437907e+00 0 0 0
210 3 1.2613626373937949e+01 3.7939754991340888e+00 7.9375547558387174e+00 0 0 0
584 2 1.2613626905944427e+01 3.7939778985297221e+00 4.6994123300615165e+00 0 0 0
232 3 1.5677924567429502e+01 3.7939754668858274e+00 7.9375551035528433e+00 0 0 0
606 2 1.5677924644010846e+01 3.7939778595921001e+00 4.6994126498490703e+00 0 0 0
254 3 1.8742222646535506e+01 3.7939754101596370e+00 7.9375550656622140e+00 0 0 0
628 2 1.8742222545527802e+01 3.7939778698271813e+00 4.6994126592916468e+00 0 0 0
276 3 2.1806520729380793e+01 3.7939754121067191e+00 7.9375549740030538e+00 0 0 0
650 2 2.1806520674072054e+01 3.7939778762782179e+00 4.6994126510459928e+00 0 0 0
298 3 2.4870818966448695e+01 3.7939754390843810e+00 7.9375549252190511e+00 0 0 0
672 2 2.4870818934862545e+01 3.7939778956799968e+00 4.6994126873532780e+00 0 0 0
320 3 2.7935117341305361e+01 3.7939754615332122e+00 7.9375548957263753e+00 0 0 0
694 2 2.7935117309212533e+01 3.7939779173462869e+00 4.6994127215811012e+00 0 0 0
342 3 3.0999415803579303e+01 3.7939754755100128e+00 7.9375548766487576e+00 0 0 0
716 2 3.0999415770517608e+01 3.7939779317012676e+00 4.6994127419560465e+00 0 0 0
364 3 3.4063714324247883e+01 3.7939754865018314e+00 7.9375548617976763e+00 0 0 0
738 2 3.4063714290664414e+01 3.7939779424875444e+00 4.6994127573626772e+00 0 0 0
12 3 3.7128012909120095e+01 3.7939755025779829e+00 7.9375548380042051e+00 0 0 0
386 2 3.7128012867503884e+01 3.7939779562329883e+00 4.6994127751070085e+00 0 0 0
34 3 4.0192311590127503e+01 3.7939755264628241e+00 7.9375547859619111e+00 0 0 0
408 2 4.0192311531786423e+01 3.7939779802450246e+00 4.6994127897248381e+00 0 0 0
56 3 4.3256610351405676e+01 3.7939755385809470e+00 7.9375547383877052e+00 0 0 0
430 2 4.3256610375263151e+01 3.7939780244407997e+00 4.6994128285065333e+00 0 0 0
78 3 4.6320909128397680e+01 3.7939755320152972e+00 7.9375549003481636e+00 0 0 0
452 2 4.6320909486291164e+01 3.7939780531559451e+00 4.6994130716045079e+00 0 0 0
100 3 4.9385208140787405e+01 3.7939755686104157e+00 7.9375553553459328e+00 0 0 0
474 2 4.9385208574272561e+01 3.7939779703088203e+00 4.6994135669614598e+00 0 0 0
122 3 5.2449507599281063e+01 3.7939755674986064e+00 7.9375554881790125e+00 0 0 0
496 2 5.2449507229585365e+01 3.7939778641139221e+00 4.6994136591940325e+00 0 0 0
123 3 1.8885856603929483e+00 6.4477354940037159e+00 7.9375545889439518e+00 0 0 0
497 2 1.8885848987588023e+00 6.4477365520547254e+00 4.6994167068884174e+00 0 0 0
892 1 1.8885823091230682e+00 4.6785620980180980e+00 6.3184849650508319e+00 0 0 0
145 3 4.9528845182447947e+00 6.4477354026937732e+00 7.9375538131986385e+00 0 0 0
519 2 4.9528836552776623e+00 6.4477366142652688e+00 4.6994157796115354e+00 0 0 0
914 1 4.9528810966780066e+00 4.6785621596528593e+00 6.3184840318884374e+00 0 0 0
167 3 8.0171826499847505e+00 6.4477353739165597e+00 7.9375534043939879e+00 0 0 0
541 2 8.0171825286404186e+00 6.4477366763480717e+00 4.6994151768044485e+00 0 0 0
936 1 8.0171795957568062e+00 4.6785622708317698e+00 6.3184834778360912e+00 0 0 0
189 3 1.1081480495461356e+01 6.4477354432542038e+00 7.9375537763653314e+00 0 0 0
563 2 1.1081481087137933e+01 6.4477366232256399e+00 4.6994154039919716e+00 0 0 0
958 1 1.1081477816966331e+01 4.6785623512047865e+00 6.3184838416744427e+00 0 0 0
211 3 1.4145778633531075e+01 6.4477354753024789e+00 7.9375543302780409e+00 0 0 0
585 2 1.4145778967977972e+01 6.4477365438539156e+00 4.6994158801652679e+00 0 0 0
980 1 1.4145775842755240e+01 4.6785623664695040e+00 6.3184844156234519e+00 0 0 0
233 3 1.7210076788631255e+01 6.4477354104578266e+00 7.9375544467139347e+00 0 0 0
607 2 1.7210076744328799e+01 6.4477365408864493e+00 4.6994160114382133e+00 0 0 0
1002 1 1.7210073809897278e+01 4.6785623266124432e+00 6.3184845088647252e+00 0 0 0
255 3 2.0274374839213976e+01 6.4477353840256404e+00 7.9375543515137235e+00 0 0 0
629 2 2.0274374776982249e+01 6.4477365460202911e+00 4.6994159850050208e+00 0 0 0
1024 1 2.0274371846681088e+01 4.6785622818208914e+00 6.3184844311340820e+00 0 0 0
277 3 2.3338672992756539e+01 6.4477354040600252e+00 7.9375542830798942e+00 0 0 0
651 2 2.3338672976536714e+01 6.4477365582898996e+00 4.6994160042366282e+00 0 0 0
1046 1 2.3338670018646781e+01 4.6785622536706564e+00 6.3184844097659090e+00 0 0 0
299 3 2.6402971304776255e+01 6.4477354303925685e+00 7.9375542461386397e+00 0 0 0
673 2 2.6402971295182862e+01 6.4477365813926619e+00 4.6994160438210182e+00 0 0 0
1068 1 2.6402968332995993e+01 4.6785622397766238e+00 6.3184844127725652e+00 0 0 0
321 3 2.9467269728623350e+01 6.4477354482679177e+00 7.9375542222691111e+00 0 0 0
695 2 2.9467269717185662e+01 6.4477365996125835e+00 4.6994160706635553e+00 0 0 0
1090 1 2.9467266756069975e+01 4.6785622324789271e+00 6.3184844141699994e+00 0 0 0
717 2 3.2531568210026983e+01 6.4477366113315844e+00 4.6994160871987436e+00 0 0 0
1112 1 3.2531565249115118e+01 4.6785622280554975e+00 6.3184844144825698e+00 0 0 0
343 3 3.2531568221733686e+01 6.4477354598333072e+00 7.9375542064464568e+00 0 0 0
365 3 3.5595866771399265e+01 6.4477354723834930e+00 7.9375541893103430e+00 0 0 0
739 2 3.5595866757014846e+01 6.4477366228703117e+00 4.6994161035971596e+00 0 0 0
760 1 3.5595863797344464e+01 4.6785622234474058e+00 6.3184844146509356e+00 0 0 0
13 3 3.8660165401045418e+01 6.4477354930675261e+00 7.9375541532461886e+00 0 0 0
387 2 3.8660165371440812e+01 6.4477366407854868e+00 4.6994161211697048e+00 0 0 0
782 1 3.8660162418750105e+01 4.6785622159889275e+00 6.3184844064277641e+00 0 0 0
35 3 4.1724464132152690e+01 6.4477355148991560e+00 7.9375540901530499e+00 0 0 0
409 2 4.1724464109743714e+01 6.4477366747360518e+00 4.6994161370339667e+00 0 0 0
804 1 4.1724461153029040e+01 4.6785622041357007e+00 6.3184843757000557e+00 0 0 0
57 3 4.4788762902273795e+01 6.4477355137303727e+00 7.9375541129929692e+00 0 0 0
431 2 4.4788763088653894e+01 6.4477367207571250e+00 4.6994162462867584e+00 0 0 0
826 1 4.4788760031527254e+01 4.6785621826906345e+00 6.3184844181735720e+00 0 0 0
79 3 4.7853061741213835e+01 6.4477355235570535e+00 7.9375544512323462e+00 0 0 0
453 2 4.7853062255787115e+01 6.4477366987625233e+00 4.6994166485566584e+00 0 0 0
848 1 4.7853059042273678e+01 4.6785621445653875e+00 6.3184848070405897e+00 0 0 0
101 3 5.0917360996521715e+01 6.4477355635175782e+00 7.9375548516392538e+00 0 0 0
475 2 5.0917361134025022e+01 6.4477365771140924e+00 4.6994170561455171e+00 0 0 0
870 1 5.0917358112519075e+01 4.6785621014391054e+00 6.3184852952876360e+00 0 0 0
146 3 3.4207319454416063e+00 9.1014961255556521e+00 7.9375580338866270e+00 0 0 0
520 2 3.4207309857779902e+00 9.1014985565074298e+00 4.6994162263984167e+00 0 0 0
893 1 3.4207345001924332e+00 7.3323238235910235e+00 6.3184856420033109e+00 0 0 0
168 3 6.4850304213205279e+00 9.1014960641239142e+00 7.9375573403090316e+00 0 0 0
542 2 6.4850298342714110e+00 9.1014986285136459e+00 4.6994153519499884e+00 0 0 0
915 1 6.4850331522305460e+00 7.3323239179664981e+00 6.3184847863228626e+00 0 0 0
190 3 9.5493283175312254e+00 9.1014960806418319e+00 7.9375573308376621e+00 0 0 0
564 2 9.5493286299369089e+00 9.1014986522058408e+00 4.6994151681478575e+00 0 0 0
937 1 9.5493315004011059e+00 7.3323240233280407e+00 6.3184846852631749e+00 0 0 0
212 3 1.2613626300796215e+01 9.1014961629833397e+00 7.9375579167673216e+00 0 0 0
586 2 1.2613626832801527e+01 9.1014985507913515e+00 4.6994156342659128e+00 0 0 0
959 1 1.2613629608325219e+01 7.3323240732897892e+00 6.3184853083831110e+00 0 0 0
234 3 1.5677924494287385e+01 9.1014961307374200e+00 7.9375582644803044e+00 0 0 0
608 2 1.5677924570867201e+01 9.1014985118511298e+00 4.6994159540522196e+00 0 0 0
981 1 1.5677927587879681e+01 7.3323240534877501e+00 6.3184856476160425e+00 0 0 0
256 3 1.8742222573391995e+01 9.1014960740123243e+00 7.9375582265883660e+00 0 0 0
630 2 1.8742222472384402e+01 9.1014985220849027e+00 4.6994159634935535e+00 0 0 0
1003 1 1.8742225579608412e+01 7.3323240071597660e+00 6.3184855988547213e+00 0 0 0
278 3 2.1806520656236309e+01 9.1014960759594743e+00 7.9375581349285653e+00 0 0 0
652 2 2.1806520600928643e+01 9.1014985285358687e+00 4.6994159552473125e+00 0 0 0
1025 1 2.1806523679395923e+01 7.3323239696127773e+00 6.3184855453612361e+00 0 0 0
300 3 2.4870818893303792e+01 9.1014961029370962e+00 7.9375580861444064e+00 0 0 0
674 2 2.4870818861718888e+01 9.1014985479378137e+00 4.6994159915544573e+00 0 0 0
1047 1 2.4870821924216923e+01 7.3323239497523316e+00 6.3184855427794897e+00 0 0 0
322 3 2.7935117268160294e+01 9.1014961253859568e+00 7.9375580566516977e+00 0 0 0
696 2 2.7935117236068656e+01 9.1014985696041695e+00 4.6994160257822584e+00 0 0 0
1069 1 2.7935120298061488e+01 7.3323239398076820e+00 6.3184855457015301e+00 0 0 0
344 3 3.0999415730434183e+01 9.1014961393627978e+00 7.9375580375739947e+00 0 0 0
718 2 3.0999415697373731e+01 9.1014985839592040e+00 4.6994160461572250e+00 0 0 0
1091 1 3.0999418759864660e+01 7.3323239343229796e+00 6.3184855462032141e+00 0 0 0
366 3 3.4063714251102802e+01 9.1014961503546417e+00 7.9375580227229667e+00 0 0 0
740 2 3.4063714217520548e+01 9.1014985947454559e+00 4.6994160615638503e+00 0 0 0
1113 1 3.4063717280264846e+01 7.3323239302000847e+00 6.3184855466249008e+00 0 0 0
14 3 3.7128012835975163e+01 9.1014961664307616e+00 7.9375579989294103e+00 0 0 0
388 2 3.7128012794360167e+01 9.1014986084909779e+00 4.6994160793081869e+00 0 0 0
761 1 3.7128015861109553e+01 7.3323239244234379e+00 6.3184855447047399e+00 0 0 0
36 3 4.0192311516982869e+01 9.1014961903156255e+00 7.9375579468870621e+00 0 0 0
410 2 4.0192311458643005e+01 9.1014986325031710e+00 4.6994160939259970e+00 0 0 0
783 1 4.0192314534206780e+01 7.3323239149847792e+00 6.3184855252316989e+00 0 0 0
58 3 4.3256610278261832e+01 9.1014962024337382e+00 7.9375578993125711e+00 0 0 0
432 2 4.3256610302119945e+01 9.1014986766989932e+00 4.6994161327073600e+00 0 0 0
805 1 4.3256613339599298e+01 7.3323238994798814e+00 6.3184855038608916e+00 0 0 0
80 3 4.6320909055255477e+01 9.1014961958689184e+00 7.9375580612720187e+00 0 0 0
454 2 4.6320909413147845e+01 9.1014987054132792e+00 4.6994163758044039e+00 0 0 0
827 1 4.6320912288667955e+01 7.3323238697121571e+00 6.3184856896790764e+00 0 0 0
102 3 4.9385208067646474e+01 9.1014962324662854e+00 7.9375585162682878e+00 0 0 0
476 2 4.9385208501129490e+01 9.1014986225636374e+00 4.6994168711599471e+00 0 0 0
849 1 4.9385211339164670e+01 7.3323238265328197e+00 6.3184862282135787e+00 0 0 0
124 3 5.2449507526138959e+01 9.1014962313561814e+00 7.9375586491006400e+00 0 0 0
498 2 5.2449507156444213e+01 9.1014985163666484e+00 4.6994169633916885e+00 0 0 0
871 1 5.2449510389859789e+01 7.3323237951734033e+00 6.3184863959066728e+00 0 0 0
125 3 1.8885856419902840e+00 1.1755257817526330e+01 7.9375559956112172e+00 0 0 0
499 2 1.8885848803690872e+00 1.1755255882250642e+01 4.6994181679295872e+00 0 0 0
894 1 1.8885822376269852e+00 9.9860828832185433e+00 6.3184881737940461e+00 0 0 0
147 3 4.9528844998387562e+00 1.1755257726215483e+01 7.9375552198724151e+00 0 0 0
521 2 4.9528836368908671e+00 1.1755255944462304e+01 4.6994172406589403e+00 0 0 0
916 1 4.9528810251818411e+00 9.9860829448533845e+00 6.3184872406366468e+00 0 0 0
169 3 8.0171826315802814e+00 1.1755257697437299e+01 7.9375548110757697e+00 0 0 0
543 2 8.0171825102518817e+00 1.1755256006546238e+01 4.6994166378596480e+00 0 0 0
938 1 8.0171795242603974e+00 9.9860830560323546e+00 6.3184866865906653e+00 0 0 0
191 3 1.1081480477061337e+01 1.1755257766775037e+01 7.9375551830491871e+00 0 0 0
565 2 1.1081481068745203e+01 1.1755255953423905e+01 4.6994168650493764e+00 0 0 0
960 1 1.1081477745469764e+01 9.9860831364054850e+00 6.3184870504310569e+00 0 0 0
213 3 1.4145778615132764e+01 1.1755257798824207e+01 7.9375557369582870e+00 0 0 0
587 2 1.4145778949583898e+01 1.1755255874051434e+01 4.6994173412192781e+00 0 0 0
982 1 1.4145775771258261e+01 9.9860831516703126e+00 6.3184876243775463e+00 0 0 0
235 3 1.7210076770231474e+01 1.1755257733980079e+01 7.9375558533906814e+00 0 0 0
609 2 1.7210076725936162e+01 1.1755255871083298e+01 4.6994174724886451e+00 0 0 0
1004 1 1.7210073738399778e+01 9.9860831118132030e+00 6.3184877176159908e+00 0 0 0
257 3 2.0274374820812838e+01 1.1755257707547806e+01 7.9375557581893945e+00 0 0 0
631 2 2.0274374758590554e+01 1.1755255876217095e+01 4.6994174460543485e+00 0 0 0
1026 1 2.0274371775182999e+01 9.9860830670215250e+00 6.3184876398842729e+00 0 0 0
279 3 2.3338672974355099e+01 1.1755257727581879e+01 7.9375556897555963e+00 0 0 0
653 2 2.3338672958144958e+01 1.1755255888486838e+01 4.6994174652860092e+00 0 0 0
1048 1 2.3338669947148290e+01 9.9860830388712341e+00 6.3184876185159204e+00 0 0 0
301 3 2.6402971286374818e+01 1.1755257753914254e+01 7.9375556528144049e+00 0 0 0
675 2 2.6402971276790918e+01 1.1755255911589721e+01 4.6994175048704392e+00 0 0 0
1070 1 2.6402968261497278e+01 9.9860830249771215e+00 6.3184876215225554e+00 0 0 0
323 3 2.9467269710221878e+01 1.1755257771789532e+01 7.9375556289448408e+00 0 0 0
697 2 2.9467269698793640e+01 1.1755255929809657e+01 4.6994175317129638e+00 0 0 0
1092 1 2.9467266684571189e+01 9.9860830176794462e+00 6.3184876229199798e+00 0 0 0
719 2 3.2531568191634911e+01 1.1755255941528642e+01 4.6994175482481069e+00 0 0 0
1114 1 3.2531565177616223e+01 9.9860830132559748e+00 6.3184876232325173e+00 0 0 0
345 3 3.2531568203332228e+01 1.1755257783354883e+01 7.9375556131221510e+00 0 0 0
367 3 3.5595866752997757e+01 1.1755257795905052e+01 7.9375555959860167e+00 0 0 0
741 2 3.5595866738622874e+01 1.1755255953067378e+01 4.6994175646465646e+00 0 0 0
762 1 3.5595863725845746e+01 9.9860830086478938e+00 6.3184876234008476e+00 0 0 0
15 3 3.8660165382643974e+01 1.1755257816588944e+01 7.9375555599218774e+00 0 0 0
389 2 3.8660165353048960e+01 1.1755255970982603e+01 4.6994175822191586e+00 0 0 0
784 1 3.8660162347251607e+01 9.9860830011893444e+00 6.3184876151777347e+00 0 0 0
37 3 4.1724464113751331e+01 1.1755257838420315e+01 7.9375554968289066e+00 0 0 0
411 2 4.1724464091352047e+01 1.1755256004933230e+01 4.6994175980835156e+00 0 0 0
806 1 4.1724461081530883e+01 9.9860829893360030e+00 6.3184875844500157e+00 0 0 0
59 3 4.4788762883873481e+01 1.1755257837251285e+01 7.9375555196683072e+00 0 0 0
433 2 4.4788763070261645e+01 1.1755256050954218e+01 4.6994177073357575e+00 0 0 0
828 1 4.4788759960029651e+01 9.9860829678908392e+00 6.3184876269229440e+00 0 0 0
81 3 4.7853061722815433e+01 1.1755257847078486e+01 7.9375558579047167e+00 0 0 0
455 2 4.7853062237393253e+01 1.1755256028959135e+01 4.6994181096027496e+00 0 0 0
850 1 4.7853058970776800e+01 9.9860829297655300e+00 6.3184880157876862e+00 0 0 0
103 3 5.0917360978123163e+01 1.1755257887039939e+01 7.9375562583069890e+00 0 0 0
477 2 5.0917361115631458e+01 1.1755255907309975e+01 4.6994185171872616e+00 0 0 0
872 1 5.0917358041022894e+01 9.9860828866394709e+00 6.3184885040312171e+00 0 0 0
148 3 3.4207319766045217e+00 1.4409018328998387e+01 7.9375570283772170e+00 0 0 0
522 2 3.4207310169325913e+00 1.4409018200490902e+01 4.6994153087993169e+00 0 0 0
895 1 3.4207344813377696e+00 1.2639844707971779e+01 6.3184861893567961e+00 0 0 0
170 3 6.4850304524827704e+00 1.4409018267568952e+01 7.9375563348068203e+00 0 0 0
544 2 6.4850298654265224e+00 1.4409018272494199e+01 4.6994144343579141e+00 0 0 0
917 1 6.4850331333758184e+00 1.2639844802346921e+01 6.3184853336864428e+00 0 0 0
192 3 9.5493283486963030e+00 1.4409018284088507e+01 7.9375563253400649e+00 0 0 0
566 2 9.5493286610898735e+00 1.4409018296184387e+01 4.6994142505603147e+00 0 0 0
939 1 9.5493314815465240e+00 1.2639844907708310e+01 6.3184852326333356e+00 0 0 0
214 3 1.2613626331964113e+01 1.4409018366429788e+01 7.9375569112678797e+00 0 0 0
588 2 1.2613626863952835e+01 1.4409018194770510e+01 4.6994147166765927e+00 0 0 0
961 1 1.2613629589470895e+01 1.2639844957670356e+01 6.3184858557508914e+00 0 0 0
236 3 1.5677924525455223e+01 1.4409018334182880e+01 7.9375572589768613e+00 0 0 0
610 2 1.5677924602019532e+01 1.4409018155831760e+01 4.6994150364589862e+00 0 0 0
983 1 1.5677927569025375e+01 1.2639844937868558e+01 6.3184861949783961e+00 0 0 0
258 3 1.8742222604558815e+01 1.4409018277457282e+01 7.9375572210833969e+00 0 0 0
632 2 1.8742222503538162e+01 1.4409018166066156e+01 4.6994150458987445e+00 0 0 0
1005 1 1.8742225560753965e+01 1.2639844891540541e+01 6.3184861462148341e+00 0 0 0
280 3 2.1806520687402983e+01 1.4409018279404203e+01 7.9375571294237970e+00 0 0 0
654 2 2.1806520632082727e+01 1.4409018172517161e+01 4.6994150376527228e+00 0 0 0
1027 1 2.1806523660541252e+01 1.2639844853993459e+01 6.3184860927214075e+00 0 0 0
302 3 2.4870818924470687e+01 1.4409018306381634e+01 7.9375570806398734e+00 0 0 0
676 2 2.4870818892872894e+01 1.4409018191919087e+01 4.6994150739601315e+00 0 0 0
1049 1 2.4870821905362057e+01 1.2639844834132901e+01 6.3184860901399409e+00 0 0 0
324 3 2.7935117299327267e+01 1.4409018328830363e+01 7.9375570511472482e+00 0 0 0
698 2 2.7935117267222665e+01 1.4409018213585417e+01 4.6994151081879556e+00 0 0 0
1071 1 2.7935120279206604e+01 1.2639844824188209e+01 6.3184860930620266e+00 0 0 0
346 3 3.0999415761601156e+01 1.4409018342807123e+01 7.9375570320695292e+00 0 0 0
720 2 3.0999415728527723e+01 1.4409018227940429e+01 4.6994151285629364e+00 0 0 0
1093 1 3.0999418741009737e+01 1.2639844818703480e+01 6.3184860935637293e+00 0 0 0
368 3 3.4063714282269764e+01 1.4409018353798952e+01 7.9375570172184560e+00 0 0 0
742 2 3.4063714248674543e+01 1.4409018238726702e+01 4.6994151439695209e+00 0 0 0
1115 1 3.4063717261410012e+01 1.2639844814580551e+01 6.3184860939854177e+00 0 0 0
16 3 3.7128012867142054e+01 1.4409018369875039e+01 7.9375569934249297e+00 0 0 0
390 2 3.7128012825514169e+01 1.4409018252472165e+01 4.6994151617138984e+00 0 0 0
763 1 3.7128015842254754e+01 1.2639844808803842e+01 6.3184860920651920e+00 0 0 0
38 3 4.0192311548149604e+01 1.4409018393759672e+01 7.9375569413827414e+00 0 0 0
412 2 4.0192311489797028e+01 1.4409018276484259e+01 4.6994151763318648e+00 0 0 0
785 1 4.0192314515352024e+01 1.2639844799365079e+01 6.3184860725923926e+00 0 0 0
60 3 4.3256610309428396e+01 1.4409018405877545e+01 7.9375568938085976e+00 0 0 0
434 2 4.3256610333273798e+01 1.4409018320679996e+01 4.6994152151135422e+00 0 0 0
807 1 4.3256613320744805e+01 1.2639844783859971e+01 6.3184860512218934e+00 0 0 0
82 3 4.6320909086422709e+01 1.4409018399312261e+01 7.9375570557672246e+00 0 0 0
456 2 4.6320909444300497e+01 1.4409018349394612e+01 4.6994154582097583e+00 0 0 0
829 1 4.6320912269813697e+01 1.2639844754092163e+01 6.3184862370387913e+00 0 0 0
104 3 4.9385208098814459e+01 1.4409018435908695e+01 7.9375575107598184e+00 0 0 0
478 2 4.9385208532280629e+01 1.4409018266546560e+01 4.6994159535617799e+00 0 0 0
851 1 4.9385211320310404e+01 1.2639844710913211e+01 6.3184867755682257e+00 0 0 0
126 3 5.2449507557305168e+01 1.4409018434797881e+01 7.9375576435887574e+00 0 0 0
500 2 5.2449507187596275e+01 1.4409018160351090e+01 4.6994160457902332e+00 0 0 0
873 1 5.2449510371005331e+01 1.2639844679554210e+01 6.3184869432566186e+00 0 0 0
127 3 1.8885856822617828e+00 1.7062778854417243e+01 7.9375543125672028e+00 0 0 0
501 2 1.8885849206394667e+00 1.7062776872937466e+01 4.6994164919328600e+00 0 0 0
896 1 1.8885822671307122e+00 1.5293603879151680e+01 6.3184864851668019e+00 0 0 0
149 3 4.9528845401094639e+00 1.7062778763108067e+01 7.9375535368305137e+00 0 0 0
523 2 4.9528836771617559e+00 1.7062776935146442e+01 4.6994155646645268e+00 0 0 0
918 1 4.9528810546853981e+00 1.5293603940785959e+01 6.3184855520141614e+00 0 0 0
171 3 8.0171826718516055e+00 1.7062778734331854e+01 7.9375531280365896e+00 0 0 0
545 2 8.0171825505225982e+00 1.7062776997226955e+01 4.6994149618680963e+00 0 0 0
940 1 8.0171795537642527e+00 1.5293604051964218e+01 6.3184849979741946e+00 0 0 0
193 3 1.1081480517334002e+01 1.7062778803669975e+01 7.9375535000102104e+00 0 0 0
567 2 1.1081481109015378e+01 1.7062776944103934e+01 4.6994151890579507e+00 0 0 0
962 1 1.1081477774974024e+01 1.5293604132337244e+01 6.3184853618153838e+00 0 0 0
215 3 1.4145778655405950e+01 1.7062778835718028e+01 7.9375540539173270e+00 0 0 0
589 2 1.4145778989854417e+01 1.7062776864733287e+01 4.6994156652257493e+00 0 0 0
984 1 1.4145775800763007e+01 1.5293604147602448e+01 6.3184859357581056e+00 0 0 0
237 3 1.7210076810504347e+01 1.7062778770873152e+01 7.9375541703485384e+00 0 0 0
611 2 1.7210076766207621e+01 1.7062776861766608e+01 4.6994157964939314e+00 0 0 0
1006 1 1.7210073767904827e+01 1.5293604107745651e+01 6.3184860289940445e+00 0 0 0
259 3 2.0274374861085761e+01 1.7062778744440852e+01 7.9375540751474469e+00 0 0 0
633 2 2.0274374798862397e+01 1.7062776866900595e+01 4.6994157700598613e+00 0 0 0
1028 1 2.0274371804688215e+01 1.5293604062954069e+01 6.3184859512623328e+00 0 0 0
281 3 2.3338673014628267e+01 1.7062778764474960e+01 7.9375540067139916e+00 0 0 0
655 2 2.3338672998416808e+01 1.7062776879170205e+01 4.6994157892918551e+00 0 0 0
1050 1 2.3338669976653584e+01 1.5293604034803687e+01 6.3184859298945151e+00 0 0 0
303 3 2.6402971326648139e+01 1.7062778790807300e+01 7.9375539697728916e+00 0 0 0
677 2 2.6402971317062825e+01 1.7062776902272979e+01 4.6994158288764298e+00 0 0 0
1072 1 2.6402968291002569e+01 1.5293604020909555e+01 6.3184859329013072e+00 0 0 0
325 3 2.9467269750495280e+01 1.7062778808682570e+01 7.9375539459033604e+00 0 0 0
699 2 2.9467269739065571e+01 1.7062776920492873e+01 4.6994158557189403e+00 0 0 0
1094 1 2.9467266714076551e+01 1.5293604013611823e+01 6.3184859342987290e+00 0 0 0
721 2 3.2531568231906867e+01 1.7062776932211861e+01 4.6994158722540860e+00 0 0 0
1116 1 3.2531565207121652e+01 1.5293604009188302e+01 6.3184859346112789e+00 0 0 0
347 3 3.2531568243605619e+01 1.7062778820247914e+01 7.9375539300806954e+00 0 0 0
369 3 3.5595866793271156e+01 1.7062778832798024e+01 7.9375539129445416e+00 0 0 0
743 2 3.5595866778894781e+01 1.7062776943750578e+01 4.6994158886525277e+00 0 0 0
764 1 3.5595863755351147e+01 1.5293604004580262e+01 6.3184859347796518e+00 0 0 0
17 3 3.8660165422917210e+01 1.7062778853481891e+01 7.9375538768804681e+00 0 0 0
391 2 3.8660165393320796e+01 1.7062776961665715e+01 4.6994159062251786e+00 0 0 0
786 1 3.8660162376756844e+01 1.5293603997121641e+01 6.3184859265565301e+00 0 0 0
39 3 4.1724464154024318e+01 1.7062778875313228e+01 7.9375538137877042e+00 0 0 0
413 2 4.1724464131623833e+01 1.7062776995616133e+01 4.6994159220897744e+00 0 0 0
808 1 4.1724461111036106e+01 1.5293603985268140e+01 6.3184858958291974e+00 0 0 0
61 3 4.4788762924146170e+01 1.7062778874144211e+01 7.9375538366274556e+00 0 0 0
435 2 4.4788763110533218e+01 1.7062777041637080e+01 4.6994160313424196e+00 0 0 0
830 1 4.4788759989534796e+01 1.5293603963822937e+01 6.3184859383025076e+00 0 0 0
83 3 4.7853061763088263e+01 1.7062778883970797e+01 7.9375541748633571e+00 0 0 0
457 2 4.7853062277663938e+01 1.7062777019643093e+01 4.6994164336087723e+00 0 0 0
852 1 4.7853059000281604e+01 1.5293603925697912e+01 6.3184863271656697e+00 0 0 0
105 3 5.0917361018395752e+01 1.7062778923931130e+01 7.9375545752636887e+00 0 0 0
479 2 5.0917361155901418e+01 1.7062776897996240e+01 4.6994168411913195e+00 0 0 0
874 1 5.0917358070527122e+01 1.5293603882572450e+01 6.3184868154051967e+00 0 0 0
150 3 3.4207319996341257e+00 1.9716538720030425e+01 7.9375561328819115e+00 0 0 0
524 2 3.4207310399624542e+00 1.9716539796610011e+01 4.6994143564541213e+00 0 0 0
897 1 3.4207345206332764e+00 1.7947365716610403e+01 6.3184845247786434e+00 0 0 0
172 3 6.4850304755125121e+00 1.9716538658601195e+01 7.9375554393118843e+00 0 0 0
546 2 6.4850298884564355e+00 1.9716539868611608e+01 4.6994134820132700e+00 0 0 0
919 1 6.4850331726714137e+00 1.7947365810984824e+01 6.3184836691098836e+00 0 0 0
194 3 9.5493283717262738e+00 1.9716538675120759e+01 7.9375554298452391e+00 0 0 0
568 2 9.5493286841197520e+00 1.9716539892300677e+01 4.6994132982157772e+00 0 0 0
941 1 9.5493315208423279e+00 1.7947365916345678e+01 6.3184835680576228e+00 0 0 0
216 3 1.2613626354994238e+01 1.9716538757461606e+01 7.9375560157725102e+00 0 0 0
590 2 1.2613626886982679e+01 1.9716539790887268e+01 4.6994137643314051e+00 0 0 0
963 1 1.2613629628766954e+01 1.7947365966307689e+01 6.3184841911740603e+00 0 0 0
238 3 1.5677924548485187e+01 1.9716538725214445e+01 7.9375563634810193e+00 0 0 0
612 2 1.5677924625049741e+01 1.9716539751949540e+01 4.6994140841133101e+00 0 0 0
985 1 1.5677927608321776e+01 1.7947365946506284e+01 6.3184845304003590e+00 0 0 0
260 3 1.8742222627588809e+01 1.9716538668489065e+01 7.9375563255877335e+00 0 0 0
634 2 1.8742222526568611e+01 1.9716539762184315e+01 4.6994140935532638e+00 0 0 0
1007 1 1.8742225600050659e+01 1.7947365900178564e+01 6.3184844816368564e+00 0 0 0
282 3 2.1806520710433198e+01 1.9716538670436226e+01 7.9375562339283805e+00 0 0 0
656 2 2.1806520655113196e+01 1.9716539768635293e+01 4.6994140853075184e+00 0 0 0
1029 1 2.1806523699838163e+01 1.7947365862631575e+01 6.3184844281438908e+00 0 0 0
304 3 2.4870818947501014e+01 1.9716538697413739e+01 7.9375561851445706e+00 0 0 0
678 2 2.4870818915903406e+01 1.9716539788037089e+01 4.6994141216150132e+00 0 0 0
1051 1 2.4870821944659159e+01 1.7947365842771017e+01 6.3184844255625716e+00 0 0 0
326 3 2.7935117322357677e+01 1.9716538719862498e+01 7.9375561556519036e+00 0 0 0
700 2 2.7935117290253221e+01 1.9716539809703391e+01 4.6994141558428755e+00 0 0 0
1073 1 2.7935120318503678e+01 1.7947365832826325e+01 6.3184844284847070e+00 0 0 0
348 3 3.0999415784631619e+01 1.9716538733839272e+01 7.9375561365742096e+00 0 0 0
722 2 3.0999415751558331e+01 1.9716539824058390e+01 4.6994141762178163e+00 0 0 0
1095 1 3.0999418780306854e+01 1.7947365827341567e+01 6.3184844289863928e+00 0 0 0
370 3 3.4063714305300195e+01 1.9716538744831063e+01 7.9375561217231807e+00 0 0 0
744 2 3.4063714271705102e+01 1.9716539834844607e+01 4.6994141916244230e+00 0 0 0
1117 1 3.4063717300707083e+01 1.7947365823218661e+01 6.3184844294080600e+00 0 0 0
18 3 3.7128012890172435e+01 1.9716538760907163e+01 7.9375560979296562e+00 0 0 0
392 2 3.7128012848544678e+01 1.9716539848590109e+01 4.6994142093687694e+00 0 0 0
765 1 3.7128015881551811e+01 1.7947365817441881e+01 6.3184844274878866e+00 0 0 0
40 3 4.0192311571179843e+01 1.9716538784791844e+01 7.9375560458874901e+00 0 0 0
414 2 4.0192311512827494e+01 1.9716539872602109e+01 4.6994142239867855e+00 0 0 0
787 1 4.0192314554649016e+01 1.7947365808003156e+01 6.3184844080150935e+00 0 0 0
62 3 4.3256610332458465e+01 1.9716538796909845e+01 7.9375559983135071e+00 0 0 0
436 2 4.3256610356304229e+01 1.9716539916797750e+01 4.6994142627686140e+00 0 0 0
809 1 4.3256613360041563e+01 1.7947365792498069e+01 6.3184843866449665e+00 0 0 0
84 3 4.6320909109452558e+01 1.9716538790344885e+01 7.9375561602724343e+00 0 0 0
458 2 4.6320909467330786e+01 1.9716539945512533e+01 4.6994145058652039e+00 0 0 0
831 1 4.6320912309109950e+01 1.7947365762730495e+01 6.3184845724621770e+00 0 0 0
106 3 4.9385208121844329e+01 1.9716538826941264e+01 7.9375566152649846e+00 0 0 0
480 2 4.9385208555310548e+01 1.9716539862665346e+01 4.6994150012170763e+00 0 0 0
853 1 4.9385211359606437e+01 1.7947365719551897e+01 6.3184851109910225e+00 0 0 0
128 3 5.2449507580334895e+01 1.9716538825830028e+01 7.9375567480934679e+00 0 0 0
502 2 5.2449507210626024e+01 1.9716539756470755e+01 4.6994150934449843e+00 0 0 0
875 1 5.2449510410300853e+01 1.7947365688193159e+01 6.3184852786781640e+00 0 0 0
898 1 1.8885822902846492e+00 2.0601124814246948e+01 6.3184859179598680e+00 0 0 0
920 1 4.9528810778395309e+00 2.0601124875880750e+01 6.3184849848072391e+00 0 0 0
942 1 8.0171795769183234e+00 2.0601124987058423e+01 6.3184844307672021e+00 0 0 0
964 1 1.1081477798128009e+01 2.0601125067431148e+01 6.3184847946080911e+00 0 0 0
986 1 1.4145775823916972e+01 2.0601125082696441e+01 6.3184853685504363e+00 0 0 0
1008 1 1.7210073791058907e+01 2.0601125042839932e+01 6.3184854617864756e+00 0 0 0
1030 1 2.0274371827842547e+01 2.0601124998048611e+01 6.3184853840550899e+00 0 0 0
1052 1 2.3338669999808005e+01 2.0601124969898336e+01 6.3184853626873521e+00 0 0 0
1074 1 2.6402968314157160e+01 2.0601124956004213e+01 6.3184853656940954e+00 0 0 0
1096 1 2.9467266737231085e+01 2.0601124948706484e+01 6.3184853670915357e+00 0 0 0
1118 1 3.2531565230276122e+01 2.0601124944282969e+01 6.3184853674040600e+00 0 0 0
766 1 3.5595863778505617e+01 2.0601124939674882e+01 6.3184853675724071e+00 0 0 0
788 1 3.8660162399911357e+01 2.0601124932216322e+01 6.3184853593493306e+00 0 0 0
810 1 4.1724461134190364e+01 2.0601124920362924e+01 6.3184853286219393e+00 0 0 0
832 1 4.4788760012688840e+01 2.0601124898917863e+01 6.3184853710954920e+00 0 0 0
854 1 4.7853059023435428e+01 2.0601124860793188e+01 6.3184857599589446e+00 0 0 0
876 1 5.0917358093680846e+01 2.0601124817667785e+01 6.3184862481984503e+00 0 0 0
129 3 1.8885856895354762e+00 2.2370299401603333e+01 7.9375541925653286e+00 0 0 0
503 2 1.8885849279136313e+00 2.2370298140273203e+01 4.6994163110057068e+00 0 0 0
899 1 3.4207345283264461e+00 2.3254886563076397e+01 6.3184845722629106e+00 0 0 0
151 3 4.9528845473832952e+00 2.2370299310293650e+01 7.9375534168286528e+00 0 0 0
525 2 4.9528836844360340e+00 2.2370298202481646e+01 4.6994153837373629e+00 0 0 0
921 1 6.4850331803646704e+00 2.3254886657450459e+01 6.3184837165941516e+00 0 0 0
173 3 8.0171826791254350e+00 2.2370299281516893e+01 7.9375530080346257e+00 0 0 0
547 2 8.0171825577968558e+00 2.2370298264561622e+01 4.6994147809409030e+00 0 0 0
195 3 1.1081480524607732e+01 2.2370299350854602e+01 7.9375533800081000e+00 0 0 0